
Host: ds1.sherrill.chemistry.gatech.edu

Timers On : Thu Jan 25 17:44:30 2018
Timers Off: Thu Jan 25 17:44:31 2018

Wall Time:        0.48 seconds


-----------------------------------------------------------

***********************************************************
